 Gaussian 09, Revision E.01,
 Gaussian 09:  ES64L-G09RevE.01 30-Nov-2015

 ----------------------------------------------------------------------
 #P wb97xd/6-31g* # SCF=(xqc) # Opt # Freq=() # IOp(7/33=1) # int=ultra
 fine
 ----------------------------------------------------------------------

 --------
 comment:
 --------
 Symbolic Z-matrix:
 Charge =  0 Multiplicity = 2

 SCF Done:  E(UwB97XD) =  -113.763397859     A.U. after   18 cycles
 SCF Done:  E(UwB97XD) =  -113.764970109     A.U. after   16 cycles
 SCF Done:  E(UwB97XD) =  -113.764972028     A.U. after   10 cycles
 Optimization completed.
    -- Stationary point found.
 Normal termination of Gaussian 09 at Thu Oct 28 15:26:31 2021.

 ----------------------------------------------------------------------
 #P Geom=AllCheck Guess=TCheck SCRF=Check Test GenChk UwB97XD/6-31G(d)
 Freq
 ----------------------------------------------------------------------

 Structure from the checkpoint file:  "/scratch/kmoore/Gau-4079.chk"
 --------
 comment:
 --------
 Charge =  0 Multiplicity = 2

                         Standard orientation:
 ---------------------------------------------------------------------
 Center     Atomic      Atomic             Coordinates (Angstroms)
 Number     Number       Type             X           Y           Z
 ---------------------------------------------------------------------
      1          6           0        0.000000    0.000000   -0.563829
      2          8           0        0.000000    0.000000    0.626764
      3          1           0        0.000000    0.000000   -1.631137
 ---------------------------------------------------------------------

 SCF Done:  E(UwB97XD) =  -113.764972028     A.U. after    1 cycles

 Unable to determine electronic state:  partially filled degenerate orbitals.
 Alpha  occ. eigenvalues --  -19.32556 -10.38517  -1.18431  -0.73133  -0.57418
 Alpha  occ. eigenvalues --   -0.52312  -0.49880  -0.21716
 Alpha virt. eigenvalues --    0.04105   0.14460   0.33686   0.59389   0.60775
 Alpha virt. eigenvalues --    0.71296   0.83816   0.92721   1.03681   1.04287
 Alpha virt. eigenvalues --    1.11679   1.58829   1.59043   1.59645   1.59922

  Beta  occ. eigenvalues --  -19.31799 -10.37548  -1.16555  -0.69999  -0.56072
  Beta  occ. eigenvalues --   -0.48921  -0.45895
  Beta virt. eigenvalues --    0.05812   0.08945   0.16034   0.34233   0.61875
  Beta virt. eigenvalues --    0.63676   0.72237   0.85448   0.93718   1.04666
  Beta virt. eigenvalues --    1.06519   1.12314   1.59891   1.62719   1.63528

 Mulliken charges and spin densities:
               1          2
     1  C    0.032645   0.807649
     2  O   -0.334370   0.244327
     3  H    0.301726  -0.051977
 Sum of Mulliken charges =  -0.00000   1.00000

 Dipole moment (field-independent basis, Debye):
    X=              0.0000    Y=              0.0000    Z=             -2.5215  Tot=              2.5215
 Quadrupole moment (field-independent basis, Debye-Ang):
   XX=            -12.1102   YY=            -10.5016   ZZ=             -8.6696
   XY=              0.0000   XZ=              0.0000   YZ=              0.0000

  Exact polarizability:   7.796   0.000   6.703   0.000  -0.000  16.531
 Approx polarizability:   7.604  -0.000   7.143  -0.000  -0.000  20.631

 ******    1 imaginary frequencies (negative Signs) ******

                      1                      2                      3
                     PI                     PI                     SG
 Frequencies --  -1625.8558               854.1485              1920.2457
 Red. masses --      1.3254                 1.3254                 6.1083
 Frc consts  --      2.0643                 0.5697                13.2704
 IR Inten    --    293.8185                18.9716                57.2737

                      4
                     SG
 Frequencies --   3508.1062
 Red. masses --      1.1482
 Frc consts  --      8.3255
 IR Inten    --     51.5771

 - Thermochemistry -
 -------------------
 Temperature   298.150 Kelvin.  Pressure   1.00000 Atm.
 Atom     1 has atomic number  6 and mass  12.00000

 Molecular mass:    29.00274 amu.
 Principal axes and moments of inertia in atomic units:
                           1         2         3
     Eigenvalues --     0.00000  45.31549  45.31549
           X            0.00000  -0.00000   1.00000
           Y            0.00000   1.00000   0.00000
           Z            1.00000   0.00000   0.00000
 This molecule is a prolate symmetric top.
 Rotational symmetry number  1.
 Rotational temperature (Kelvin)      1.91135
 Rotational constant (GHZ):          39.826139
    1 imaginary frequencies ignored.
 Zero-point vibrational energy      37577.7 (Joules/Mol)
                                    8.98129 (Kcal/Mol)
 Vibrational temperatures:   1228.93  2762.80  5047.38
          (Kelvin)

 Zero-point correction=                           0.014313 (Hartree/Particle)
 Thermal correction to Energy=                    0.016738
 Thermal correction to Enthalpy=                  0.017682
 Thermal correction to Gibbs Free Energy=        -0.005883
 Sum of electronic and zero-point Energies=           -113.750659
 Sum of electronic and thermal Energies=              -113.748234
 Sum of electronic and thermal Enthalpies=            -113.747290
 Sum of electronic and thermal Free Energies=         -113.770855

                     E (Thermal)             CV                S
                      KCal/Mol        Cal/Mol-Kelvin    Cal/Mol-Kelvin
 Total                   10.503              5.550             49.597
 Electronic               0.000              0.000              1.377
 Translational            0.889              2.981             36.028
 Rotational               0.592              1.987             12.022
 Vibrational              9.022              0.582              0.169

 Optimization completed.
    -- Stationary point found.
 Normal termination of Gaussian 09 at Thu Oct 28 15:26:35 2021.
