 Gaussian 09, Revision E.01,
 Gaussian 09:  ES64L-G09RevE.01 30-Nov-2015

 ----------------------------------------------------------------------
 #P wb97xd/6-31g* # SCF=(xqc) # int=ultrafine # Freq=(ANHARM,VIBROT,REA
 DANHARM)
 ----------------------------------------------------------------------

 --------
 comment:
 --------
 Symbolic Z-matrix:
 Charge =  0 Multiplicity = 1

                         Standard orientation:
 ---------------------------------------------------------------------
 Center     Atomic      Atomic             Coordinates (Angstroms)
 Number     Number       Type             X           Y           Z
 ---------------------------------------------------------------------
      1          6           0        0.000000    0.000000    0.000080
      2          1           0        0.000000    0.000000   -1.092920
      3          1           0        0.000000    1.029737    0.364147
      4          1           0       -0.891778   -0.514868    0.364147
      5          1           0        0.891778   -0.514868    0.364147
 ---------------------------------------------------------------------

 SCF Done:  E(RwB97XD) =  -40.5018607941     A.U. after   12 cycles
 SCF Done:  E(RwB97XD) =  -40.5018482092     A.U. after    7 cycles
 SCF Done:  E(RwB97XD) =  -40.5018476869     A.U. after    8 cycles
 SCF Done:  E(RwB97XD) =  -40.5018479343     A.U. after    7 cycles
 SCF Done:  E(RwB97XD) =  -40.5018479343     A.U. after    8 cycles
 SCF Done:  E(RwB97XD) =  -40.5018479650     A.U. after    7 cycles
 SCF Done:  E(RwB97XD) =  -40.5018479107     A.U. after    8 cycles
 SCF Done:  E(RwB97XD) =  -40.5018435053     A.U. after    7 cycles
 SCF Done:  E(RwB97XD) =  -40.5018435166     A.U. after    7 cycles
 SCF Done:  E(RwB97XD) =  -40.5018435140     A.U. after    7 cycles
 SCF Done:  E(RwB97XD) =  -40.5018435140     A.U. after    7 cycles
 SCF Done:  E(RwB97XD) =  -40.5018009697     A.U. after    7 cycles
 SCF Done:  E(RwB97XD) =  -40.5017934135     A.U. after    7 cycles
 SCF Done:  E(RwB97XD) =  -40.5017836780     A.U. after    7 cycles
 SCF Done:  E(RwB97XD) =  -40.5018005659     A.U. after    8 cycles
 SCF Done:  E(RwB97XD) =  -40.5017918295     A.U. after    7 cycles
 SCF Done:  E(RwB97XD) =  -40.5017918295     A.U. after    8 cycles
 SCF Done:  E(RwB97XD) =  -40.5017924266     A.U. after    7 cycles
 SCF Done:  E(RwB97XD) =  -40.5017912761     A.U. after    8 cycles

 Alpha  occ. eigenvalues --  -10.27533  -0.78734  -0.47393  -0.47207  -0.47153
 Alpha virt. eigenvalues --    0.20540   0.25996   0.26073   0.26339   0.62050
 Alpha virt. eigenvalues --    0.62332   0.62412   0.99553   0.99713   1.00265
 Alpha virt. eigenvalues --    1.04918   1.18748   1.73935   1.73936   2.33105

 Mulliken charges:
               1
     1  C   -0.695337
     2  H    0.173673
     3  H    0.176299
     4  H    0.172683
     5  H    0.172683
 Sum of Mulliken charges =   0.00000

 Dipole moment (field-independent basis, Debye):
    X=             -0.0000    Y=              0.0075    Z=              0.0005  Tot=              0.0075
 Quadrupole moment (field-independent basis, Debye-Ang):
   XX=             -8.2057   YY=             -8.2093   ZZ=             -8.2070
   XY=             -0.0000   XZ=              0.0000   YZ=             -0.0013

  Exact polarizability:  12.553  -0.000  12.374   0.000  -0.063  12.477
 Approx polarizability:  11.465  -0.000  11.299   0.000  -0.059  11.394

                      1                      2                      3
                     ?A                     ?A                     ?A
 Frequencies --   1377.1050              1377.6884              1377.7006
 Red. masses --      1.1784                 1.1783                 1.1783
 Frc consts  --      1.3167                 1.3176                 1.3177
 IR Inten    --     18.9401                19.0295                19.0339

                      4                      5                      6
                      E                      E                     A1
 Frequencies --   1597.7685              1597.7704              3067.3713
 Red. masses --      1.0078                 1.0078                 1.0079
 Frc consts  --      1.5159                 1.5159                 5.5873
 IR Inten    --      0.0001                 0.0000                 0.0245

                      7                      8                      9
                     A1                      E                      E
 Frequencies --   3187.0502              3193.8611              3193.8625
 Red. masses --      1.1021                 1.1023                 1.1023
 Frc consts  --      6.5953                 6.6248                 6.6248
 IR Inten    --     24.0853                23.9759                23.9771

 - Thermochemistry -
 -------------------
 Temperature   298.150 Kelvin.  Pressure   1.00000 Atm.
 Atom     1 has atomic number  6 and mass  12.00000

 Molecular mass:    16.03130 amu.
 Principal axes and moments of inertia in atomic units:
                           1         2         3
     Eigenvalues --    11.44872  11.45500  11.45500
           X            0.00000   0.74542   0.66660
           Y            0.00000  -0.66660   0.74542
           Z            1.00000  -0.00000  -0.00000
 This molecule is a prolate symmetric top.
 Rotational symmetry number  3.
 Rotational temperatures (Kelvin)      7.56537     7.56122     7.56122
 Rotational constants (GHZ):         157.63701   157.55054   157.55054
 Zero-point vibrational energy     119448.2 (Joules/Mol)
                                   28.54880 (Kcal/Mol)
 Vibrational temperatures:   1981.34  1982.18  1982.20  2298.83  2298.83
          (Kelvin)           4413.26  4585.45  4595.25  4595.25

 Zero-point correction=                           0.045495 (Hartree/Particle)
 Thermal correction to Energy=                    0.048359
 Thermal correction to Enthalpy=                  0.049303
 Thermal correction to Gibbs Free Energy=         0.026866
 Sum of electronic and zero-point Energies=            -40.456365
 Sum of electronic and thermal Energies=               -40.453502
 Sum of electronic and thermal Enthalpies=             -40.452558
 Sum of electronic and thermal Free Energies=          -40.474995

                     E (Thermal)             CV                S
                      KCal/Mol        Cal/Mol-Kelvin    Cal/Mol-Kelvin
 Total                   30.346              6.411             47.224
 Electronic               0.000              0.000              0.000
 Translational            0.889              2.981             34.261
 Rotational               0.889              2.981             12.888
 Vibrational             28.568              0.449              0.075

 Optimization completed.
    -- Stationary point found.
 Normal termination of Gaussian 09 at Wed Feb 26 13:36:19 2020.
