 Gaussian 09, Revision E.01,
 Gaussian 09:  ES64L-G09RevE.01 30-Nov-2015

 ----------------------------------------------------------------------
 #P wb97xd/6-31g* # SCF=(xqc) # int=ultrafine # POpt=() # Freq=(ANHARM,
 VIBROT)
 ----------------------------------------------------------------------

 --------
 comment:
 --------
 Symbolic Z-matrix:
 Charge =  0 Multiplicity = 1

 SCF Done:  E(RwB97XD) =  -79.8016982815     A.U. after   12 cycles
 SCF Done:  E(RwB97XD) =  -79.8020063837     A.U. after   10 cycles
 SCF Done:  E(RwB97XD) =  -79.8020233556     A.U. after    7 cycles
 Optimization completed.
    -- Stationary point found.
 Normal termination of Gaussian 09 at Wed Feb 24 12:13:22 2021.

 ---------------------------------------------------------------------
 #P Geom=AllCheck Guess=TCheck SCRF=Check GenChk RwB97XD/6-31G(d) Freq
 ---------------------------------------------------------------------

 Structure from the checkpoint file:  "/scratch/kmoore/Gau-31974.chk"
 --------
 comment:
 --------
 Charge =  0 Multiplicity = 1

                         Standard orientation:
 ---------------------------------------------------------------------
 Center     Atomic      Atomic             Coordinates (Angstroms)
 Number     Number       Type             X           Y           Z
 ---------------------------------------------------------------------
      1          6           0       -0.763732    0.000003    0.000000
      2          6           0        0.763732    0.000001   -0.000001
      3          1           0       -1.160141   -0.297307   -0.976517
      4          1           0       -1.160161    0.994338    0.230793
      5          1           0       -1.160147   -0.697052    0.745714
      6          1           0        1.160156    0.697095   -0.745674
      7          1           0        1.160141    0.297229    0.976540
      8          1           0        1.160152   -0.994325   -0.230851
 ---------------------------------------------------------------------

 SCF Done:  E(RwB97XD) =  -79.8020233556     A.U. after    1 cycles
 SCF Done:  E(RwB97XD) =  -79.8020227067     A.U. after    6 cycles
 SCF Done:  E(RwB97XD) =  -79.8020226851     A.U. after    6 cycles
 SCF Done:  E(RwB97XD) =  -79.8020185994     A.U. after    7 cycles
 SCF Done:  E(RwB97XD) =  -79.8020185793     A.U. after    8 cycles
 SCF Done:  E(RwB97XD) =  -79.8020185722     A.U. after    7 cycles
 SCF Done:  E(RwB97XD) =  -79.8020185916     A.U. after    8 cycles
 SCF Done:  E(RwB97XD) =  -79.8019585883     A.U. after    7 cycles
 SCF Done:  E(RwB97XD) =  -79.8019607056     A.U. after    8 cycles
 SCF Done:  E(RwB97XD) =  -79.8019567020     A.U. after    7 cycles
 SCF Done:  E(RwB97XD) =  -79.8019573374     A.U. after    8 cycles
 SCF Done:  E(RwB97XD) =  -79.8019569137     A.U. after    7 cycles
 SCF Done:  E(RwB97XD) =  -79.8019570601     A.U. after    8 cycles
 SCF Done:  E(RwB97XD) =  -79.8019560510     A.U. after    7 cycles
 SCF Done:  E(RwB97XD) =  -79.8019560583     A.U. after    8 cycles
 SCF Done:  E(RwB97XD) =  -79.8019560193     A.U. after    7 cycles
 SCF Done:  E(RwB97XD) =  -79.8019560243     A.U. after    8 cycles

 Alpha  occ. eigenvalues --  -10.28143 -10.28122  -0.84703  -0.70589  -0.51695
 Alpha  occ. eigenvalues --   -0.51695  -0.44500  -0.42041  -0.42040
 Alpha virt. eigenvalues --    0.18997   0.24359   0.24770   0.24772   0.27532
 Alpha virt. eigenvalues --    0.27533   0.32313   0.59929   0.63209   0.63211
 Alpha virt. eigenvalues --    0.72492   0.72494   0.76594   0.98189   0.98229

 Mulliken charges:
               1
     1  C   -0.490786
     2  C   -0.490787
     3  H    0.165012
     4  H    0.163728
     5  H    0.162043
     6  H    0.165143
     7  H    0.162177
     8  H    0.163471
 Sum of Mulliken charges =   0.00000

 Dipole moment (field-independent basis, Debye):
    X=              0.0000    Y=              0.0038    Z=             -0.0121  Tot=              0.0127
 Quadrupole moment (field-independent basis, Debye-Ang):
   XX=            -15.1544   YY=            -14.6067   ZZ=            -14.6068
   XY=             -0.0001   XZ=             -0.0000   YZ=              0.0000

  Exact polarizability:  23.876  -0.000  22.586   0.001   0.000  22.586
 Approx polarizability:  21.339   0.000  22.352   0.000  -0.000  22.353

                      1                      2                      3
                      A                      A                      A
 Frequencies --    312.3579               839.6727               840.4535
 Red. masses --      1.0078                 1.0577                 1.0577
 Frc consts  --      0.0579                 0.4394                 0.4402
 IR Inten    --      0.0000                 5.3512                 5.3598

                      4                      5                      6
                      A                      A                      A
 Frequencies --   1026.0824              1240.2654              1240.5614
 Red. masses --      3.1645                 1.4650                 1.4653
 Frc consts  --      1.9630                 1.3278                 1.3286
 IR Inten    --      0.0000                 0.0000                 0.0000

                      7                      8                      9
                      A                      A                      A
 Frequencies --   1436.1759              1465.3912              1539.5541
 Red. masses --      1.1982                 1.2689                 1.0190
 Frc consts  --      1.4561                 1.6055                 1.4230
 IR Inten    --      1.9431                 0.0000                 0.0000

                     10                     11                     12
                      A                      A                      A
 Frequencies --   1539.8215              1541.7680              1542.0857
 Red. masses --      1.0191                 1.0616                 1.0616
 Frc consts  --      1.4236                 1.4868                 1.4874
 IR Inten    --      0.0000                 9.7941                 9.7981

                     13                     14                     15
                      A                      A                      A
 Frequencies --   3069.5010              3070.5526              3133.1830
 Red. masses --      1.0342                 1.0376                 1.1025
 Frc consts  --      5.7410                 5.7640                 6.3765
 IR Inten    --     57.7550                 0.0000                 0.0000

                     16                     17                     18
                      A                      A                      A
 Frequencies --   3133.9736              3155.8898              3156.6795
 Red. masses --      1.1024                 1.1033                 1.1033
 Frc consts  --      6.3796                 6.4742                 6.4773
 IR Inten    --      0.0000                67.6931                67.7467

 - Thermochemistry -
 -------------------
 Temperature   298.150 Kelvin.  Pressure   1.00000 Atm.
 Atom     1 has atomic number  6 and mass  12.00000

 Molecular mass:    30.04695 amu.
 Principal axes and moments of inertia in atomic units:
                           1         2         3
     Eigenvalues --    22.50043  90.30544  90.30565
           X            1.00000   0.00000   0.00000
           Y           -0.00000   1.00000   0.00000
           Z           -0.00000  -0.00000   1.00000
 This molecule is an asymmetric top.
 Rotational symmetry number  1.
 Rotational temperatures (Kelvin)      3.84943     0.95912     0.95912
 Rotational constants (GHZ):          80.20918    19.98486    19.98481
 Zero-point vibrational energy     199082.3 (Joules/Mol)
                                   47.58182 (Kcal/Mol)
 Warning -- explicit consideration of   1 degrees of freedom as
           vibrations may cause significant error
 Vibrational temperatures:    449.41  1208.10  1209.22  1476.30  1784.46
          (Kelvin)           1784.89  2066.33  2108.37  2215.07  2215.46
                             2218.26  2218.71  4416.32  4417.83  4507.95
                             4509.08  4540.62  4541.75

 Zero-point correction=                           0.075826 (Hartree/Particle)
 Thermal correction to Energy=                    0.079290
 Thermal correction to Enthalpy=                  0.080234
 Thermal correction to Gibbs Free Energy=         0.052721
 Sum of electronic and zero-point Energies=            -79.726197
 Sum of electronic and thermal Energies=               -79.722734
 Sum of electronic and thermal Enthalpies=             -79.721790
 Sum of electronic and thermal Free Energies=          -79.749303

                     E (Thermal)             CV                S
                      KCal/Mol        Cal/Mol-Kelvin    Cal/Mol-Kelvin
 Total                   49.755              9.933             57.906
 Electronic               0.000              0.000              0.000
 Translational            0.889              2.981             36.134
 Rotational               0.889              2.981             19.845
 Vibrational             47.978              3.972              1.927
 Vibration     1          0.701              1.650              1.350

 Optimization completed.
    -- Stationary point found.
 Normal termination of Gaussian 09 at Wed Feb 24 12:18:27 2021.
