 Gaussian 09, Revision E.01,
 Gaussian 09:  ES64L-G09RevE.01 30-Nov-2015

 ---------------------
 # b2plypd3 6-31g* Opt
 ---------------------

 -------
 comment
 -------
 Symbolic Z-matrix:
 Charge =  0 Multiplicity = 1

 SCF Done:  E(RB2PLYPD3) =  -76.2732339990     A.U. after   11 cycles
 E2(B2PLYPD3) =    -0.6106121180D-01 E(B2PLYPD3) =    -0.76334295210769D+02
 SCF Done:  E(RB2PLYPD3) =  -76.2749167548     A.U. after   10 cycles
 E2(B2PLYPD3) =    -0.6033471839D-01 E(B2PLYPD3) =    -0.76335251473211D+02
 SCF Done:  E(RB2PLYPD3) =  -76.2749911039     A.U. after    7 cycles
 E2(B2PLYPD3) =    -0.6028824728D-01 E(B2PLYPD3) =    -0.76335279351162D+02
 Optimization completed.
    -- Stationary point found.

                         Standard orientation:
 ---------------------------------------------------------------------
 Center     Atomic      Atomic             Coordinates (Angstroms)
 Number     Number       Type             X           Y           Z
 ---------------------------------------------------------------------
      1          8           0        0.000000   -0.000000    0.119281
      2          1           0        0.000000    0.761116   -0.477125
      3          1           0       -0.000000   -0.761116   -0.477125
 ---------------------------------------------------------------------

 The electronic state is 1-A1.
 Alpha  occ. eigenvalues --  -19.73330  -1.13891  -0.59401  -0.45486  -0.37738
 Alpha virt. eigenvalues --    0.12206   0.21138   0.87235   0.98264   0.99384
 Alpha virt. eigenvalues --    1.00374   1.19138   1.29132   1.84910   1.86540
 Alpha virt. eigenvalues --    1.89857   2.41700   2.72368   3.72068

 Mulliken charges:
               1
     1  O   -0.813392
     2  H    0.406696
     3  H    0.406696
 Sum of Mulliken charges =  -0.00000

 Dipole moment (field-independent basis, Debye):
    X=              0.0000    Y=              0.0000    Z=             -2.1595  Tot=              2.1595
 Quadrupole moment (field-independent basis, Debye-Ang):
   XX=             -7.2150   YY=             -4.2153   ZZ=             -5.9747
   XY=              0.0000   XZ=              0.0000   YZ=             -0.0000

 Normal termination of Gaussian 09 at Sun Nov  3 09:58:21 2019.
