 Gaussian 09, Revision E.01,
 Gaussian 09:  ES64L-G09RevE.01 30-Nov-2015

 ----------------------------------------------------------------------
 # b2plypd3/cc-pvtz opt=(ts,calcfc,noeig,intern,maxcyc=50) # int=ultraf
 ine nosym scf=xqc freq
 ----------------------------------------------------------------------

 ------
 geom 0
 ------
 Symbolic Z-matrix:
 Charge =  0 Multiplicity = 2

 SCF Done:  E(UB2PLYPD3) =  -189.984722702     A.U. after   28 cycles
 E2(B2PLYPD3) =    -0.1969037594D+00 E(B2PLYPD3) =    -0.19018162646159D+03
 E2(B2PLYPD3) =    -0.1969037594D+00 E(B2PLYPD3) =    -0.19018162646159D+03
 SCF Done:  E(UB2PLYPD3) =  -189.984253562     A.U. after   21 cycles
 E2(B2PLYPD3) =    -0.1973482636D+00 E(B2PLYPD3) =    -0.19018160182535D+03
 SCF Done:  E(UB2PLYPD3) =  -189.983500079     A.U. after   23 cycles
 E2(B2PLYPD3) =    -0.1980792633D+00 E(B2PLYPD3) =    -0.19018157934244D+03
 SCF Done:  E(UB2PLYPD3) =  -189.983092702     A.U. after   22 cycles
 E2(B2PLYPD3) =    -0.1984974789D+00 E(B2PLYPD3) =    -0.19018159018105D+03
 SCF Done:  E(UB2PLYPD3) =  -189.983347006     A.U. after   19 cycles
 E2(B2PLYPD3) =    -0.1982451147D+00 E(B2PLYPD3) =    -0.19018159212121D+03
 SCF Done:  E(UB2PLYPD3) =  -189.983295717     A.U. after   19 cycles
 E2(B2PLYPD3) =    -0.1982966177D+00 E(B2PLYPD3) =    -0.19018159233503D+03
 SCF Done:  E(UB2PLYPD3) =  -189.983353509     A.U. after   17 cycles
 E2(B2PLYPD3) =    -0.1982388624D+00 E(B2PLYPD3) =    -0.19018159237186D+03
 SCF Done:  E(UB2PLYPD3) =  -189.983335010     A.U. after   17 cycles
 E2(B2PLYPD3) =    -0.1982573788D+00 E(B2PLYPD3) =    -0.19018159238898D+03
 Optimization completed.
    -- Stationary point found.
 Normal termination of Gaussian 09 at Wed Jul  3 18:02:26 2019.

 ----------------------------------------------------------------------
 #N Geom=AllCheck Guess=TCheck SCRF=Check GenChk UB2PLYPD3(FC)/CC-pVTZ
 Freq
 ----------------------------------------------------------------------

 Structure from the checkpoint file:  "tmp.chk"
 ------
 geom 0
 ------
 Charge =  0 Multiplicity = 2

                          Input orientation:
 ---------------------------------------------------------------------
 Center     Atomic      Atomic             Coordinates (Angstroms)
 Number     Number       Type             X           Y           Z
 ---------------------------------------------------------------------
      1          6           0        0.000000    0.000000    0.000000
      2          8           0        0.000000    0.000000    1.199605
      3          1           0        0.928374    0.000000   -0.597265
      4          1           0       -0.952281   -0.000042   -0.596940
      5          8           0       -2.627227   -0.004140   -0.910065
      6          1           0       -2.857582   -0.004885    0.033714
 ---------------------------------------------------------------------

 SCF Done:  E(UB2PLYPD3) =  -189.983335010     A.U. after    1 cycles
 E2(B2PLYPD3) =    -0.1982573788D+00 E(B2PLYPD3) =    -0.19018159238905D+03
 E2(B2PLYPD3) =    -0.1982573788D+00 E(B2PLYPD3) =    -0.19018159238905D+03

 Alpha  occ. eigenvalues --  -19.80116 -19.75448 -10.72668  -1.21906  -1.17750
 Alpha  occ. eigenvalues --   -0.74511  -0.60454  -0.56941  -0.55113  -0.50484
 Alpha  occ. eigenvalues --   -0.47074  -0.43943  -0.34431
 Alpha virt. eigenvalues --    0.01409   0.07993   0.10828   0.18957   0.23001
 Alpha virt. eigenvalues --    0.34093   0.36452   0.37840   0.44676   0.49775
 Alpha virt. eigenvalues --    0.50854   0.56247   0.56262   0.60887   0.63828

  Beta  occ. eigenvalues --  -19.77190 -19.75372 -10.72436  -1.21709  -1.08049
  Beta  occ. eigenvalues --   -0.73390  -0.58236  -0.54878  -0.53640  -0.47030
  Beta  occ. eigenvalues --   -0.40906  -0.34821
  Beta virt. eigenvalues --   -0.07343   0.01614   0.08656   0.11275   0.19124
  Beta virt. eigenvalues --    0.23903   0.34286   0.37003   0.39401   0.45667
  Beta virt. eigenvalues --    0.50165   0.52056   0.56404   0.56659   0.61147

 Mulliken charges and spin densities:
               1          2
     1  C    0.132818   0.070891
     2  O   -0.278279   0.018665
     3  H    0.069184   0.027777
     4  H    0.090457  -0.040748
     5  O   -0.269013   0.940909
     6  H    0.254834  -0.017493
 Sum of Mulliken charges =   0.00000   1.00000

 Dipole moment (field-independent basis, Debye):
    X=             -0.1292    Y=             -0.0009    Z=             -0.8158  Tot=              0.8259
 Quadrupole moment (field-independent basis, Debye-Ang):
   XX=            -15.2196   YY=            -18.1768   ZZ=            -21.9934
   XY=              0.0068   XZ=             -4.6222   YZ=             -0.0074

  Exact polarizability:  44.964   0.041  13.978   7.962   0.012  28.745
 Approx polarizability:  28.702   0.017  15.601   2.691   0.003  32.553

 ******    1 imaginary frequencies (negative Signs) ******

                      1                      2                      3
                      A                      A                      A
 Frequencies --   -202.7704                73.6771                78.4535
 Red. masses --      2.7487                 5.0613                 1.0337
 Frc consts  --      0.0666                 0.0162                 0.0037
 IR Inten    --     19.4357                28.9875                 3.0670

                      4                      5                      6
                      A                      A                      A
 Frequencies --    177.5818               555.7736              1184.0571
 Red. masses --      1.1599                 1.1486                 1.3639
 Frc consts  --      0.0216                 0.2090                 1.1266
 IR Inten    --    126.4966               152.0072                 3.6878

                      7                      8                      9
                      A                      A                      A
 Frequencies --   1250.0676              1526.7795              1809.0632
 Red. masses --      1.3677                 1.1320                 6.3937
 Frc consts  --      1.2592                 1.5547                12.3285
 IR Inten    --    108.7954                85.8575               152.3665

                     10                     11                     12
                      A                      A                      A
 Frequencies --   2476.3678              2947.7064              3741.3160
 Red. masses --      1.0785                 1.0888                 1.0671
 Frc consts  --      3.8966                 5.5738                 8.8002
 IR Inten    --   1188.2347               107.7632                25.6048

 - Thermochemistry -
 -------------------
 Temperature   298.150 Kelvin.  Pressure   1.00000 Atm.
 Atom     1 has atomic number  6 and mass  12.00000

 Molecular mass:    47.01330 amu.
 Principal axes and moments of inertia in atomic units:
                           1         2         3
     Eigenvalues --    38.93290 368.92633 407.85920
           X            0.84883  -0.52867  -0.00151
           Y            0.00132  -0.00073   1.00000
           Z            0.52867   0.84883  -0.00008
 This molecule is an asymmetric top.
 Rotational symmetry number  1.
 Rotational temperatures (Kelvin)      2.22469     0.23477     0.21236
 Rotational constants (GHZ):          46.35517     4.89187     4.42491
    1 imaginary frequencies ignored.
 Zero-point vibrational energy      94629.7 (Joules/Mol)
                                   22.61703 (Kcal/Mol)
 Warning -- explicit consideration of   4 degrees of freedom as
           vibrations may cause significant error
 Vibrational temperatures:    106.00   112.88   255.50   799.63  1703.59
          (Kelvin)           1798.57  2196.69  2602.84  3562.94  4241.09
                             5382.91

 Zero-point correction=                           0.036043 (Hartree/Particle)
 Thermal correction to Energy=                    0.041258
 Thermal correction to Enthalpy=                  0.042202
 Thermal correction to Gibbs Free Energy=         0.007474
 Sum of electronic and zero-point Energies=           -190.145550
 Sum of electronic and thermal Energies=              -190.140334
 Sum of electronic and thermal Enthalpies=            -190.139390
 Sum of electronic and thermal Free Energies=         -190.174118

                     E (Thermal)             CV                S
                      KCal/Mol        Cal/Mol-Kelvin    Cal/Mol-Kelvin
 Total                   25.890             13.373             73.092
 Electronic               0.000              0.000              1.377
 Translational            0.889              2.981             37.468
 Rotational               0.889              2.981             23.287
 Vibrational             24.112              7.412             10.959
 Vibration     1          0.599              1.966              4.053
 Vibration     2          0.600              1.964              3.929
 Vibration     3          0.628              1.870              2.354
 Vibration     4          0.911              1.127              0.532

 Normal termination of Gaussian 09 at Wed Jul  3 18:12:36 2019.
