 Gaussian 09, Revision E.01,
 Gaussian 09:  ES64L-G09RevE.01 30-Nov-2015

 -------------------------------------------
 #P wb97xd/6-31g* # SCF=(qc) # int=ultrafine
 -------------------------------------------

 --------
 comment:
 --------
 Symbolic Z-matrix:
 Charge =  0 Multiplicity = 3

                         Standard orientation:
 ---------------------------------------------------------------------
 Center     Atomic      Atomic             Coordinates (Angstroms)
 Number     Number       Type             X           Y           Z
 ---------------------------------------------------------------------
      1          6           0        0.206418    0.002816   -0.007679
      2          1           0        0.356930   -0.419344    1.001524
      3          1           0        0.282619   -0.688835   -0.839731
      4          1           0        0.315237    1.090027   -0.145281
      5          1           0       -2.193293    0.001254    0.029563
 ---------------------------------------------------------------------

 SCF Done:  E(UwB97XD) =  -40.3076923558     a.u. after    6 cycles

 The electronic state is 3-A.
 Alpha  occ. eigenvalues --  -10.30143  -0.77741  -0.50276  -0.49292  -0.40596
 Alpha  occ. eigenvalues --   -0.28551
 Alpha virt. eigenvalues --    0.19618   0.25834   0.26537   0.63000   0.64123
 Alpha virt. eigenvalues --    0.65833   0.75621   0.93176   0.99132   1.00666
 Alpha virt. eigenvalues --    1.05461   1.72960   1.73342   2.07199   2.24971

  Beta  occ. eigenvalues --  -10.28923  -0.73047  -0.48967  -0.47973
  Beta virt. eigenvalues --    0.01840   0.21275   0.26725   0.27405   0.39603
  Beta virt. eigenvalues --    0.63737   0.64857   0.73597   0.87651   1.00162
  Beta virt. eigenvalues --    1.01752   1.08713   1.45524   1.80594   1.81083

 Mulliken charges and spin densities:
               1          2
     1  C   -0.538768   1.147116
     2  H    0.175668  -0.049454
     3  H    0.182577  -0.048472
     4  H    0.180424  -0.049270
     5  H    0.000099   1.000081
 Sum of Mulliken charges =   0.00000   2.00000

 Dipole moment (field-independent basis, Debye):
    X=              0.2653    Y=             -0.0103    Z=             -0.0079  Tot=              0.2656
 Quadrupole moment (field-independent basis, Debye-Ang):
   XX=            -10.2857   YY=             -8.1880   ZZ=             -8.3718
   XY=              0.0014   XZ=              0.0677   YZ=              0.0254

 Normal termination of Gaussian 09 at Thu Oct 17 23:15:26 2019.
