 Gaussian 09, Revision E.01,
 Gaussian 09:  ES64L-G09RevE.01 30-Nov-2015

 ------------------------------------------------------
 # b2plypd3/cc-pvtz polar # int=ultrafine nosym scf=xqc
 ------------------------------------------------------

 ---------
 prop calc
 ---------
 Symbolic Z-matrix:
 Charge =  0 Multiplicity = 1

                          Input orientation:
 ---------------------------------------------------------------------
 Center     Atomic      Atomic             Coordinates (Angstroms)
 Number     Number       Type             X           Y           Z
 ---------------------------------------------------------------------
      1          7           0        0.935250   -0.006830    0.018590
      2          7           0        2.175870    0.080240    0.076720
      3          1           0        0.462240    0.754850    0.527160
      4          1           0        2.648890   -0.681450   -0.431850
 ---------------------------------------------------------------------

 SCF Done:  E(RB2PLYPD3) =  -110.463040964     A.U. after   10 cycles
 E2(B2PLYPD3) =    -0.1345211132D+00 E(B2PLYPD3) =    -0.11059756207722D+03
 E2(B2PLYPD3) =    -0.1345211132D+00 E(B2PLYPD3) =    -0.11059756207722D+03

 Alpha  occ. eigenvalues --  -14.89875 -14.89786  -1.16005  -0.80417  -0.58237
 Alpha  occ. eigenvalues --   -0.51801  -0.44491  -0.30270
 Alpha virt. eigenvalues --    0.01474   0.09655   0.09977   0.34338   0.42570
 Alpha virt. eigenvalues --    0.44259   0.49391   0.51968   0.55001   0.55102
 Alpha virt. eigenvalues --    0.61012   0.65515   0.67822   0.70595   0.79721

 Mulliken charges:
               1
     1  N   -0.170650
     2  N   -0.170651
     3  H    0.170651
     4  H    0.170651
 Sum of Mulliken charges =  -0.00000

 Dipole moment (field-independent basis, Debye):
    X=              0.0000    Y=              0.0000    Z=              0.0000  Tot=              0.0000
 Quadrupole moment (field-independent basis, Debye-Ang):
   XX=            -11.5857   YY=            -11.5249   ZZ=            -11.8557
   XY=             -3.2845   XZ=             -2.1930   YZ=              0.3986

  Exact polarizability:  21.759  -3.011  13.434  -2.010   2.565  11.305
 Approx polarizability:  27.069  -2.731  14.398  -1.823   1.963  12.768

 Normal termination of Gaussian 09 at Tue Nov 27 10:46:38 2018.
