 Gaussian 09, Revision E.01,
 Gaussian 09:  ES64L-G09RevE.01 30-Nov-2015

 ----------------------------------------------------------------------
 #P b2plypd3/cc-pvtz # SCF=(xqc) # Freq=() # IOp(7/33=1) # int=ultrafin
 e
 ----------------------------------------------------------------------

 --------
 comment:
 --------
 Symbolic Z-matrix:
 Charge =  0 Multiplicity = 2

                         Standard orientation:
 ---------------------------------------------------------------------
 Center     Atomic      Atomic             Coordinates (Angstroms)
 Number     Number       Type             X           Y           Z
 ---------------------------------------------------------------------
      1          6           0        1.131154   -0.867720    0.000018
      2          6           0        0.082732    0.124554   -0.000011
      3          1           0        0.915202   -1.925270   -0.000169
      4          1           0        2.156063   -0.532425    0.000082
      5          6           0       -1.349751   -0.363206    0.000010
      6          8           0        0.355941    1.321080   -0.000011
      7          1           0       -2.022135    0.488193   -0.000334
      8          1           0       -1.540778   -0.980160    0.878209
      9          1           0       -1.540690   -0.980744   -0.877802
 ---------------------------------------------------------------------

 SCF Done:  E(UB2PLYPD3) =  -192.179914440     A.U. after   18 cycles
 E2(B2PLYPD3) =    -0.2288670031D+00 E(B2PLYPD3) =    -0.19240878144343D+03
 E2(B2PLYPD3) =    -0.2288670031D+00 E(B2PLYPD3) =    -0.19240878144343D+03

 The electronic state is 2-A.
 Alpha  occ. eigenvalues --  -19.72449 -10.70425 -10.65429 -10.61926  -1.19366
 Alpha  occ. eigenvalues --   -0.89461  -0.82171  -0.63053  -0.55490  -0.54541
 Alpha  occ. eigenvalues --   -0.52084  -0.48075  -0.45921  -0.44959  -0.33738
 Alpha  occ. eigenvalues --   -0.32377
 Alpha virt. eigenvalues --    0.07164   0.07609   0.11884   0.13791   0.15712
 Alpha virt. eigenvalues --    0.15980   0.19858   0.24393   0.27145   0.31552
 Alpha virt. eigenvalues --    0.34510   0.35826   0.37974   0.40321   0.43881

  Beta  occ. eigenvalues --  -19.71316 -10.70858 -10.63967 -10.61905  -1.17103
  Beta  occ. eigenvalues --   -0.87514  -0.79504  -0.62155  -0.54893  -0.53709
  Beta  occ. eigenvalues --   -0.50839  -0.47441  -0.45652  -0.39896  -0.32579
  Beta virt. eigenvalues --   -0.05317   0.07765   0.10018   0.12287   0.13974
  Beta virt. eigenvalues --    0.15818   0.17062   0.19841   0.24359   0.27128
  Beta virt. eigenvalues --    0.31483   0.36293   0.38732   0.38823   0.42107

 Mulliken charges and spin densities:
               1          2
     1  C   -0.252882   0.928736
     2  C    0.238913  -0.203921
     3  H    0.139692  -0.036312
     4  H    0.152049  -0.034512
     5  C   -0.307332   0.013085
     6  O   -0.297808   0.346891
     7  H    0.122903  -0.002244
     8  H    0.102242  -0.005861
     9  H    0.102222  -0.005861
 Sum of Mulliken charges =  -0.00000   1.00000

 Dipole moment (field-independent basis, Debye):
    X=             -0.4588    Y=             -3.0366    Z=             -0.0000  Tot=              3.0711
 Quadrupole moment (field-independent basis, Debye-Ang):
   XX=            -22.5791   YY=            -27.0811   ZZ=            -24.6423
   XY=             -1.4738   XZ=              0.0000   YZ=              0.0002

  Exact polarizability:  42.392  -1.577  43.066   0.000   0.000  26.859
 Approx polarizability:  40.250  -0.169  50.690   0.000  -0.000  32.200

                      1                      2                      3
                      A                      A                      A
 Frequencies --     70.0544               349.0825               384.8531
 Red. masses --      1.0694                 1.0422                 2.1357
 Frc consts  --      0.0031                 0.0748                 0.1864
 IR Inten    --      0.0157                 0.0498                 1.9027

                      4                      5                      6
                      A                      A                      A
 Frequencies --    512.0039               526.8283               744.4475
 Red. masses --      2.1216                 3.4615                 1.4077
 Frc consts  --      0.3277                 0.5660                 0.4597
 IR Inten    --      0.9292                14.8178                28.7648

                      7                      8                      9
                      A                      A                      A
 Frequencies --    824.1465               928.0168              1035.0350
 Red. masses --      3.1934                 1.5969                 1.7168
 Frc consts  --      1.2779                 0.8103                 1.0836
 IR Inten    --      2.5385                 6.6705                 4.7534

                     10                     11                     12
                      A                      A                      A
 Frequencies --   1076.0858              1278.4057              1400.9493
 Red. masses --      1.6487                 2.7075                 1.3443
 Frc consts  --      1.1248                 2.6071                 1.5545
 IR Inten    --      5.8008                60.7943                30.0614

                     13                     14                     15
                      A                      A                      A
 Frequencies --   1473.0274              1486.7376              1491.7015
 Red. masses --      1.1585                 1.1599                 1.0467
 Frc consts  --      1.4811                 1.5106                 1.3723
 IR Inten    --     31.0807                15.2223                 7.9955

                     16                     17                     18
                      A                      A                      A
 Frequencies --   1674.4037              3056.8047              3119.3691
 Red. masses --      9.3524                 1.0371                 1.0993
 Frc consts  --     15.4487                 5.7095                 6.3024
 IR Inten    --    126.9823                 3.3870                 9.1349

                     19                     20                     21
                      A                      A                      A
 Frequencies --   3171.3879              3173.0969              3291.2629
 Red. masses --      1.0741                 1.0774                 1.1202
 Frc consts  --      6.3650                 6.3914                 7.1495
 IR Inten    --      1.0107                 7.8480                 2.3696

 - Thermochemistry -
 -------------------
 Temperature   298.150 Kelvin.  Pressure   1.00000 Atm.
 Atom     1 has atomic number  6 and mass  12.00000

 Molecular mass:    57.03404 amu.
 Principal axes and moments of inertia in atomic units:
                           1         2         3
     Eigenvalues --   164.79906 197.48290 351.18415
           X            0.99680  -0.07992  -0.00000
           Y            0.07992   0.99680   0.00001
           Z           -0.00000  -0.00001   1.00000
 This molecule is an asymmetric top.
 Rotational symmetry number  1.
 Rotational temperatures (Kelvin)      0.52557     0.43859     0.24663
 Rotational constants (GHZ):          10.95116     9.13872     5.13902
 Zero-point vibrational energy     185826.1 (Joules/Mol)
                                   44.41351 (Kcal/Mol)
 Warning -- explicit consideration of   5 degrees of freedom as
           vibrations may cause significant error
 Vibrational temperatures:    100.79   502.25   553.72   736.66   757.99
          (Kelvin)           1071.09  1185.76  1335.21  1489.18  1548.25
                             1839.34  2015.65  2119.36  2139.08  2146.22
                             2409.09  4398.05  4488.07  4562.91  4565.37
                             4735.39

 Zero-point correction=                           0.070777 (Hartree/Particle)
 Thermal correction to Energy=                    0.075824
 Thermal correction to Enthalpy=                  0.076768
 Thermal correction to Gibbs Free Energy=         0.042678
 Sum of electronic and zero-point Energies=           -192.338004
 Sum of electronic and thermal Energies=              -192.332957
 Sum of electronic and thermal Enthalpies=            -192.332013
 Sum of electronic and thermal Free Energies=         -192.366104

                     E (Thermal)             CV                S
                      KCal/Mol        Cal/Mol-Kelvin    Cal/Mol-Kelvin
 Total                   47.580             16.429             71.750
 Electronic               0.000              0.000              1.377
 Translational            0.889              2.981             38.044
 Rotational               0.889              2.981             23.951
 Vibrational             45.803             10.468              8.377
 Vibration     1          0.598              1.968              4.152
 Vibration     2          0.726              1.577              1.170
 Vibration     3          0.754              1.503              1.020
 Vibration     4          0.867              1.223              0.629
 Vibration     5          0.882              1.191              0.594

 Optimization completed.
    -- Stationary point found.
 Normal termination of Gaussian 09 at Wed Oct 23 01:44:31 2019.
