 Gaussian 09, Revision E.01,
 Gaussian 09:  ES64L-G09RevE.01 30-Nov-2015

 ----------------------------------------------------------------------
 # b2plypd3/cc-pvtz opt=(internal, maxcyc=40) # int=ultrafine nosym scf
 =xqc freq
 ----------------------------------------------------------------------

 ------
 geom 0
 ------
 Symbolic Z-matrix:
 Charge =  0 Multiplicity = 1

 SCF Done:  E(RB2PLYPD3) =  -56.4575738172     A.U. after   10 cycles
 E2(B2PLYPD3) =    -0.7563729585D-01 E(B2PLYPD3) =    -0.56533211113064D+02
 SCF Done:  E(RB2PLYPD3) =  -56.4578318617     A.U. after    9 cycles
 E2(B2PLYPD3) =    -0.7556204105D-01 E(B2PLYPD3) =    -0.56533393902750D+02
 SCF Done:  E(RB2PLYPD3) =  -56.4577890128     A.U. after    7 cycles
 E2(B2PLYPD3) =    -0.7561418807D-01 E(B2PLYPD3) =    -0.56533403200902D+02
 SCF Done:  E(RB2PLYPD3) =  -56.4577759431     A.U. after    7 cycles
 E2(B2PLYPD3) =    -0.7562778183D-01 E(B2PLYPD3) =    -0.56533403724967D+02
 Optimization completed.
    -- Stationary point found.
 Normal termination of Gaussian 09 at Fri Jan 25 14:46:53 2019.

 ----------------------------------------------------------------------
 #N Geom=AllCheck Guess=TCheck SCRF=Check GenChk RB2PLYPD3(FC)/CC-pVTZ
 Freq
 ----------------------------------------------------------------------

 Structure from the checkpoint file:  "tmp.chk"
 ------
 geom 0
 ------
 Charge =  0 Multiplicity = 1

                          Input orientation:
 ---------------------------------------------------------------------
 Center     Atomic      Atomic             Coordinates (Angstroms)
 Number     Number       Type             X           Y           Z
 ---------------------------------------------------------------------
      1          7           0        0.000000    0.000000    0.000000
      2          1           0        0.000000    0.000000    1.011994
      3          1           0        0.971170    0.000000   -0.284549
      4          1           0       -0.379783   -0.893833   -0.284547
 ---------------------------------------------------------------------

 SCF Done:  E(RB2PLYPD3) =  -56.4577759431     A.U. after    1 cycles
 E2(B2PLYPD3) =    -0.7562778186D-01 E(B2PLYPD3) =    -0.56533403725000D+02
 E2(B2PLYPD3) =    -0.7562778186D-01 E(B2PLYPD3) =    -0.56533403725000D+02

 Alpha  occ. eigenvalues --  -14.80891  -0.97042  -0.52749  -0.52747  -0.33318
 Alpha virt. eigenvalues --    0.07414   0.15527   0.15527   0.38504   0.38505
 Alpha virt. eigenvalues --    0.49576   0.53081   0.60240   0.60240   0.64715
 Alpha virt. eigenvalues --    0.64717   0.68114   1.01095   1.02826   1.10142

 Mulliken charges:
               1
     1  N   -0.476585
     2  H    0.158866
     3  H    0.158859
     4  H    0.158859
 Sum of Mulliken charges =   0.00000

 Dipole moment (field-independent basis, Debye):
    X=              0.8304    Y=             -1.2550    Z=              0.6219  Tot=              1.6283
 Quadrupole moment (field-independent basis, Debye-Ang):
   XX=             -6.8154   YY=             -7.6153   ZZ=             -6.5418
   XY=              0.9414   XZ=             -0.4666   YZ=              0.7053

  Exact polarizability:  11.015   0.570  10.531  -0.282   0.427  11.180
 Approx polarizability:  11.409   0.807  10.724  -0.400   0.604  11.643

                      1                      2                      3
                      A                      A                      A
 Frequencies --   1080.4093              1687.9260              1687.9823
 Red. masses --      1.1807                 1.0658                 1.0658
 Frc consts  --      0.8120                 1.7891                 1.7892
 IR Inten    --    147.6804                16.2239                16.2207

                      4                      5                      6
                      A                      A                      A
 Frequencies --   3487.9809              3612.9506              3613.0004
 Red. masses --      1.0267                 1.0887                 1.0887
 Frc consts  --      7.3593                 8.3727                 8.3730
 IR Inten    --      2.0666                 1.0603                 1.0625

 - Thermochemistry -
 -------------------
 Temperature   298.150 Kelvin.  Pressure   1.00000 Atm.
 Atom     1 has atomic number  7 and mass  14.00307

 Molecular mass:    17.02655 amu.
 Principal axes and moments of inertia in atomic units:
                           1         2         3
     Eigenvalues --     6.04879   6.04922   9.44427
           X           -0.21990   0.83162  -0.50994
           Y            0.31252   0.55525   0.77074
           Z            0.92411   0.01012  -0.38200
 This molecule is an asymmetric top.
 Rotational symmetry number  1.
 Rotational temperatures (Kelvin)     14.31921    14.31818     9.17104
 Rotational constants (GHZ):         298.36418   298.34273   191.09374
 Zero-point vibrational energy      90738.2 (Joules/Mol)
                                   21.68696 (Kcal/Mol)
 Vibrational temperatures:   1554.47  2428.55  2428.63  5018.42  5198.22
          (Kelvin)           5198.30

 Zero-point correction=                           0.034560 (Hartree/Particle)
 Thermal correction to Energy=                    0.037424
 Thermal correction to Enthalpy=                  0.038369
 Thermal correction to Gibbs Free Energy=         0.015501
 Sum of electronic and zero-point Energies=            -56.498843
 Sum of electronic and thermal Energies=               -56.495979
 Sum of electronic and thermal Enthalpies=             -56.495035
 Sum of electronic and thermal Free Energies=          -56.517903

                     E (Thermal)             CV                S
                      KCal/Mol        Cal/Mol-Kelvin    Cal/Mol-Kelvin
 Total                   23.484              6.335             48.130
 Electronic               0.000              0.000              0.000
 Translational            0.889              2.981             34.441
 Rotational               0.889              2.981             13.611
 Vibrational             21.707              0.374              0.078

 Optimization completed.
    -- Stationary point found.
 Normal termination of Gaussian 09 at Fri Jan 25 14:47:13 2019.
