 Gaussian 09, Revision E.01,
 Gaussian 09:  ES64L-G09RevE.01 30-Nov-2015

 -----------------
 # b2plypd3 6-31g*
 -----------------

 -------
 comment
 -------
 Symbolic Z-matrix:
 Charge =  0 Multiplicity = 1

                         Standard orientation:
 ---------------------------------------------------------------------
 Center     Atomic      Atomic             Coordinates (Angstroms)
 Number     Number       Type             X           Y           Z
 ---------------------------------------------------------------------
      1          8           0        0.000000    0.000000    0.121236
      2          1           0        0.000000    0.783037   -0.484946
      3          1           0       -0.000000   -0.783037   -0.484946
 ---------------------------------------------------------------------

 SCF Done:  E(B2PLYPD3) =  -76.2732339990     A.U. after   11 cycles
 E2(B2PLYPD3) =    -0.6106121180D-01 E(B2PLYPD3) =    -0.76334295210769D+02

 The electronic state is 1-A1.
 Alpha  occ. eigenvalues --  -19.73710  -1.12788  -0.58498  -0.45075  -0.37557
 Alpha virt. eigenvalues --    0.11627   0.20401   0.86486   0.95295   0.99473
 Alpha virt. eigenvalues --    1.00403   1.18658   1.28593   1.85650   1.87016
 Alpha virt. eigenvalues --    1.90307   2.38959   2.68436   3.71006

 Mulliken charges:
               1
     1  O   -0.809548
     2  H    0.404774
     3  H    0.404774
 Sum of Mulliken charges =   0.00000

 Dipole moment (field-independent basis, Debye):
    X=             -0.0000    Y=              0.0000    Z=             -2.1603  Tot=              2.1603
 Quadrupole moment (field-independent basis, Debye-Ang):
   XX=             -7.2613   YY=             -4.1455   ZZ=             -6.0005
   XY=              0.0000   XZ=             -0.0000   YZ=             -0.0000

 Normal termination of Gaussian 09 at Sun Nov  3 09:42:06 2019.
